124
Lattice="10.0914626 0.0 0.0 3.27727311959 10.9172772589 0.0 6.68471601525 -4.18104432712 10.5533892091" Properties=species:S:1:pos:R:3:CS:R:1 ENERGY=-1414.62265880 Natoms=124 NAME=cis_0001
C	3.19336260807	8.94861455201	-0.0619514889014	35.39
C	16.8600891268	-2.21238162019	10.615340698	35.39
C	3.79195789511	8.43427288622	1.07817186418	33.22
C	16.2614938397	-1.69803995439	9.47521734487	33.22
C	4.74964778732	7.41809287678	0.972322512973	35.59
C	15.3038039475	-0.681859944957	9.58106669608	35.59
C	11.8209879177	2.77139819091	10.2632596593	35.77
C	8.23246381714	3.96483474091	0.29012954975	35.77
C	11.2215348563	3.28217757041	9.11373106307	37.28
C	8.83191687851	3.45405536142	1.43964805452	37.28
C	10.2259515221	4.25171483971	9.24020736384	17.95
C	9.82750021277	2.48451809212	1.31318184521	17.95
C	5.30013707215	6.85131597132	2.23292783804	-8.10
C	14.7533146627	-0.11508303949	8.32046137101	-8.10
C	8.5073451669	4.30709678646	7.35132776022	17.10
C	11.5461065679	2.42913614537	3.20206144883	17.10
C	8.18787973537	5.34371200765	6.46933392898	51.73
C	11.8655820909	1.39252092417	4.08405528007	51.73
C	9.0977764607	6.38435372243	6.75597183267	28.08
C	10.9556752741	0.351879209399	3.79741737638	28.08
C	7.16294033641	5.50897989065	5.401092064	-6.87
C	12.8905113984	1.22724294971	5.15229714506	-6.87
C	15.6267509337	6.45657832026	7.06147067996	108.24
C	4.42670080119	0.279654611571	3.49191852909	108.24
C	14.142337151	6.07057987581	7.24399496401	137.36
C	5.9111145838	0.665653056021	3.30939424504	137.36
C	13.2309872551	6.94528767105	6.36502857155	141.67
C	6.82246447974	-0.209054739222	4.1883606375	141.67
C	10.1481059796	-2.49009867094	6.73069271886	142.25
C	9.90534575527	9.22633160276	3.82269649019	142.25
C	12.1472449036	-2.75460599715	8.87316068615	132.69
C	7.90620683128	9.49082883751	1.6802285229	132.69
C	15.8033818035	7.95360643112	7.39751638454	135.64
C	4.2500699313	-1.21737349929	3.15587282451	135.64
C	11.6190476596	-2.10024528777	6.50781267588	140.04
C	8.43440407523	8.8364782196	4.04557653318	140.04
C	13.7669751082	6.28675918762	8.7201842046	133.89
C	6.28647662667	0.449473744204	1.83320500445	133.89
C	10.6790884672	-3.15072617858	9.09419399148	142.28
C	9.37437335911	9.88695911041	1.45919521757	142.28
C	9.7753071682	-2.27734036494	8.20677095336	133.11
C	10.2781445666	9.01357329677	2.34661825569	133.11
C	7.86831338922	2.93943113467	7.5411279888	136.70
C	12.1851383456	3.79680179716	3.01226122025	136.70
C	8.85891154096	1.81263860367	7.17688673772	141.41
C	11.1945502853	4.92359432815	3.37650247133	141.41
C	6.65874059052	2.80970538294	6.60388339983	143.35
C	13.3947111443	3.92652754888	3.94950580922	143.35
C	17.4604100539	2.74456499186	8.98930332922	146.25
C	2.59304168092	3.99166793997	1.56408587984	146.25
O	4.85502283979	7.18969280376	3.33708521842	-61.47
O	15.1984288951	-0.453459871931	7.21629389917	-61.47
O	6.26853400617	5.96336817714	2.07346254603	74.40
O	13.7849177287	0.772864754684	8.47992666302	74.40
O	7.44069775301	5.19115936753	4.21001691624	-33.80
O	12.6127539818	1.5450735643	6.34337229281	-33.80
N	9.57081377008	4.79266769238	8.08680364597	2.48
N	10.4826379648	1.94355514798	2.46658556308	2.48
N	9.92785980833	6.05823801705	7.74060593002	-96.89
N	10.1255919265	0.677994914781	2.81278327904	-96.89
N	16.1010496759	6.11107691522	5.71976026998	69.95
N	3.95240205899	0.625156016607	4.83362893907	69.95
H	12.5355442015	9.73601101284	0.0094557004562	23.79
H	7.51790753336	-2.99977808101	10.5439335086	23.79
H	13.6090134441	8.8044781917	2.06343163221	21.99
H	6.44444838221	-2.06824525987	8.48995757684	21.99
H	12.5834483744	2.00208563106	10.1700952766	21.16
H	7.47001345186	4.73414730076	0.383293932473	21.16
H	11.5253887952	2.92979378788	8.12782544144	22.23
H	8.52806293962	3.80643914394	2.42556376761	22.23
H	6.65016284731	5.65994817115	2.99782033727	13.36
H	13.4032888875	1.07628476068	7.55556887178	13.36
H	9.17321014364	7.35396163196	6.27498245077	22.60
H	10.8802415912	-0.617738791596	4.27839666682	22.60
H	5.44093315834	6.40242753194	4.90794246966	19.08
H	14.6125185765	0.333805399883	5.64544673939	19.08
H	16.2355991467	5.87117257483	7.76563275727	27.86
H	3.81785258815	0.865050265535	2.78775645179	27.86
H	14.0123591128	5.00775712624	6.98249489365	29.20
H	6.04110271355	1.72847580559	3.5708943154	29.20
H	12.1866419735	6.64658037809	6.5381072466	28.61
H	7.86680976129	0.0896525537384	4.01528196245	28.61
H	13.4363182446	6.79237173827	5.29587847493	28.48
H	6.61713349022	-0.0561388064438	5.25751073412	28.48
H	9.49728737357	-1.86799027604	6.09461773972	29.03
H	10.5561643613	8.6042131164	4.45877146933	29.03
H	12.2999590071	-1.69935184453	9.14832459687	29.26
H	7.75349272776	8.43558477635	1.40506461219	29.26
H	12.809678783	-3.35274716837	9.51799505483	30.28
H	7.24377295183	10.0889801002	1.03539415422	30.28
H	13.5803738732	-2.69087841083	7.24053359234	29.12
H	6.47307786161	9.42711134265	3.31285561672	29.12
H	15.1683866109	8.68670073169	5.44931916376	28.16
H	4.88507521541	-1.95046779987	5.10407004529	28.16
H	11.7725085314	-1.03890598321	6.75594155828	28.96
H	8.28094320347	7.77513891503	3.79744765077	28.96
H	14.3885486556	5.64577975766	9.36505893913	30.14
H	5.66491317075	1.09045317417	1.18833026993	30.14
H	12.7205913512	5.98559966925	8.8759257469	29.46
H	7.33286038366	0.750633262576	1.67746346215	29.46
H	10.4107161108	-3.0007266785	10.1533636316	29.96
H	9.64273562403	9.73695961032	0.400025577464	29.96
H	8.7219098447	-2.55187860498	8.36204828839	28.60
H	11.3315418901	9.2881115368	2.19134092066	28.60
H	9.8837500253	-1.21506255435	8.48232843112	29.57
H	10.1697017095	7.95129548618	2.07106077794	29.57
H	9.2648809899	1.95390898861	6.16645886197	30.19
H	10.7885707449	4.78232394321	4.38693034708	30.19
H	9.69849095489	1.75737775448	7.87669939464	29.20
H	10.3549607799	4.97885517735	2.67668981441	29.20
H	8.3354673759	0.846451699963	7.20736295477	30.31
H	11.7179944504	5.88978123186	3.34602625428	30.31
H	6.95287645092	2.8939287298	5.55057689949	29.28
H	13.1005752839	3.84230420202	5.00281230956	29.28
H	6.20672379774	1.821589731	6.74664732123	29.83
H	13.8467279371	4.91464320083	3.80673179636	29.83
H	15.9781356614	3.55978361508	6.81448213283	29.60
H	4.07531607346	3.17644931675	3.73890707623	29.60
H	16.7360751429	3.52211218519	9.27180373324	30.56
H	3.31737659196	3.21412074664	1.28158547581	30.56
H	8.18426699176	2.75107398524	9.72144903231	30.65
H	11.8691847431	3.98515894659	0.831940176744	30.65
H	16.956230491	1.77183882038	9.06696722539	31.01
H	3.09722124388	4.96439411144	1.48642198367	31.01
248
Lattice="22.972603406 0.0 0.0 0.0 6.95222194136 0.0 0.0 0.0 14.3534663889" Properties=species:S:1:pos:R:3:CS:R:1 ENERGY=-2829.14545858 Natoms=248 NAME=cis_0003
C	8.02952217809	-0.0232942198537	2.32273695778	35.19
C	3.45517144268	6.97707829825	9.49917150838	35.17
C	14.9414731457	3.4512661001	4.85429488052	35.17
C	19.5158238811	3.49939370423	12.0307294311	35.19
C	7.73372693663	6.07276176517	3.37793755003	36.33
C	3.75105857455	0.880677724172	10.5547856075	36.31
C	15.2373602775	2.59544473281	3.79868078141	36.31
C	19.2200286396	4.35558263317	10.9755288389	36.33
C	7.27009385469	6.57361046463	4.59929898271	34.84
C	4.21519705376	0.379576326077	11.7758254237	34.86
C	15.7014987568	3.0965461309	2.57764096517	34.86
C	18.7563955577	3.85473393372	9.75414443358	34.84
C	7.15387545406	1.00886485118	4.77848528928	34.52
C	4.33157626261	5.94423004911	11.954506333	34.51
C	15.8178779656	4.48411434923	2.39896005588	34.51
C	18.6401771571	2.4672576058	9.57498109962	34.52
C	7.46876092895	1.87536847905	3.7413411633	33.03
C	4.01657592471	5.07807101029	10.9170635632	33.05
C	15.5028776277	5.35027338805	3.43640282569	33.05
C	18.9550626319	1.60075397793	10.6121252256	33.03
C	7.88585151638	1.35483225847	2.51729193602	18.70
C	3.59946236467	5.5987910117	9.69315217154	18.68
C	15.0857640677	4.82955338665	4.66031421735	18.68
C	19.3721532194	2.12129019851	11.8361744529	18.70
C	6.82488480068	5.61684747797	5.65449957496	-4.26
C	4.66091150504	1.33617850451	12.8307503447	-4.29
C	16.147213208	2.13994395248	1.52271604416	-4.29
C	18.3111865037	4.81149692037	8.69896681394	-4.26
C	9.1067305244	3.00233548434	0.962689918332	14.33
C	2.37947928819	3.95163237488	8.13698801682	14.32
C	13.8657809912	6.47671202346	6.21647837208	14.32
C	20.5930322274	0.473786972645	13.3907764706	14.33
C	8.5813241119	3.82636276851	-0.0437168642816	50.32
C	2.90550596098	3.12767400852	7.13065015202	50.29
C	14.391807664	0.348425475859	7.22281623688	50.29
C	20.0676258149	6.60198162983	14.3971832532	50.32
C	7.21254748316	3.51485426632	14.2359844951	27.10
C	4.27458123356	3.43867711343	7.05858509513	27.08
C	15.7608829366	0.0374453435518	7.29488129377	27.08
C	18.6988491862	6.91349013202	0.117481893818	27.10
C	9.21302476036	4.85087196261	13.4192395262	-0.88
C	2.274356655	2.10249860892	6.24002529057	-0.89
C	13.760658358	1.37362384806	8.11344109833	-0.89
C	20.6993264634	5.57747243574	0.934226862712	-0.88
C	8.92954283433	3.25087608059	11.4845787577	110.28
C	2.55717237554	3.7015296416	4.30465237142	110.30
C	14.0434740785	6.72681475674	10.0488140175	110.30
C	20.4158445373	0.225246376396	2.86888763115	110.28
C	10.0392114692	2.59597310269	10.6397382949	134.54
C	1.44752671322	4.35629478388	3.45969704555	134.54
C	12.9338284162	6.07204961446	10.8937693433	134.54
C	21.5255131722	0.880149354294	3.71372809401	134.54
C	10.3256568611	3.41356805791	9.36834253198	138.75
C	1.16087456792	3.53932008895	2.18791074839	138.75
C	12.6471762709	6.88902430939	12.1655556405	138.75
C	21.8119585641	0.0625543990745	4.98512385691	138.75
C	9.0399721389	3.53667823956	8.53717076815	142.92
C	2.44658226274	3.41614098949	1.35680790237	142.93
C	13.9328839657	0.0599814674931	12.9966584865	142.93
C	20.5262738419	6.89166615878	5.81629562074	142.92
C	7.18707086598	2.00348668824	10.2166059128	130.28
C	4.29987406991	4.9485974175	3.03605926614	130.27
C	15.7861757729	5.47974698085	11.3174071228	130.27
C	18.673372569	1.47263576874	4.13686047615	130.28
C	7.66372941405	3.41722070185	10.6181670203	134.37
C	3.82282498759	3.53509312993	3.43810279835	134.37
C	15.3091266906	6.89325126842	10.9153635906	134.37
C	19.1500311171	0.058901755133	3.73529936861	134.37
C	7.96179894324	4.24418847926	9.36276018936	140.30
C	3.52445681455	2.70830913334	2.182604077	140.30
C	15.0107585175	0.767813323639	12.1708623119	140.30
C	19.4481006462	6.18415591908	4.99070619954	140.30
C	9.55586789359	1.19094570577	10.2453676122	131.98
C	1.93107704231	5.7613910986	3.06571689713	131.97
C	13.4173787453	4.66695329974	11.2877494918	131.97
C	21.0421695966	2.28517675121	4.10809877668	131.98
C	8.27408851395	1.29726291434	9.40392709466	142.86
C	3.21267264112	5.65523469827	2.22400070834	142.86
C	14.6989743441	4.77310970008	12.1294656806	142.86
C	19.7603902169	2.17883657004	4.94953929424	142.86
C	8.54603819307	2.12687254114	8.14578652392	132.62
C	2.94053918117	4.82599263312	0.965745274585	132.61
C	14.4268408842	5.60235176522	13.3877211143	132.61
C	20.0323398961	1.34924991584	6.20767986497	132.62
C	10.5332373055	2.82211541062	1.46133324786	135.81
C	0.952788726264	4.13134705133	8.6352867573	135.82
C	12.4390904293	6.29699734702	5.7181796316	135.82
C	22.0195390085	0.654007046365	12.892133141	135.81
C	10.6574961173	3.26957577976	2.93093663295	141.64
C	0.827151558236	3.68071646292	10.1037185396	141.67
C	12.3134532612	6.74762793543	4.24974784928	141.67
C	22.1437978203	0.206546677223	11.4225297559	141.64
C	11.5027271144	3.6671396543	0.61754952476	141.04
C	22.9567523096	3.28880384881	7.78824092451	141.06
C	11.4704506066	0.187295635569	6.56522546438	141.06
C	0.0164254114353	6.76120474404	13.7359168641	141.04
C	10.9667992496	1.35536062835	1.32296925755	141.12
C	0.519640289044	5.59846939525	8.49984028762	141.11
C	12.005941992	4.82987500309	5.85362610128	141.11
C	22.4531009526	2.12076182863	13.0304971313	141.12
O	6.96400688691	4.40143594957	5.56088621608	-75.77
O	4.52250156952	2.55181975894	12.736953205	-75.93
O	16.0088032725	0.92430269804	1.61651318387	-75.93
O	18.4503085899	6.02693142137	8.79258017282	-75.77
O	6.22199179689	6.21771889266	6.68755457752	81.56
O	5.26396531705	0.735376007629	13.8638742651	81.55
O	16.7502670201	2.74072347675	0.489592123789	81.55
O	17.7082934999	4.21062550568	7.66591181138	81.56
O	9.54270459184	5.97285391296	13.8329301683	-102.00
O	1.94577950849	0.980424768161	6.65410646696	-102.00
O	13.4320812115	2.49569768882	7.69935992193	-102.00
O	21.0290062948	4.45549048539	0.520536220577	-102.00
N	8.03489776728	2.26316899715	1.41391779443	3.05
N	3.45096745625	4.69045427302	8.5894334409	3.05
N	14.9372691593	5.73789012532	5.764032948	3.05
N	19.5211994703	1.21295345984	12.9395485945	3.05
N	6.87907717212	2.57265591023	0.760852624807	-77.75
N	4.6073393939	4.3806916887	7.93749392884	-77.73
N	16.0936410969	6.04765270965	6.41597246005	-77.73
N	18.3653788751	0.903443574148	13.5926137641	-77.75
N	9.34812664099	4.50313566485	12.1114551595	85.91
N	2.13893315793	2.44952275597	4.93203417044	85.91
N	13.6252348609	1.02659970101	9.42143221846	85.91
N	20.834428344	5.9252317061	2.24201122941	85.91
H	8.36262492747	6.54693927207	1.35572819001	21.89
H	3.12206869329	0.407511011819	8.53259922007	21.89
H	14.6083703963	3.06861144516	5.82086716882	21.89
H	19.8489266305	3.88140512627	12.9977381989	21.89
H	7.81998906242	4.9937845284	3.24687884759	23.04
H	3.66465861314	1.95965496095	10.4243012201	23.04
H	15.1509603161	1.51644452343	3.92916516875	23.04
H	19.3062907654	5.43458284255	11.1065645687	23.04
H	6.80145274521	1.39836534193	5.7289767552	21.75
H	4.68445842353	5.55440794192	12.9046302373	21.75
H	16.1707601265	4.87395942903	1.44883615161	21.75
H	18.2877544482	2.07775711506	8.6244896337	21.75
H	7.3693125288	2.95239304453	3.88661990724	21.64
H	4.1162999961	4.00109239002	11.0619288003	21.65
H	15.6026016991	6.42725200833	3.29153758862	21.65
H	18.8556142318	0.52372941245	10.4668464817	21.64
H	5.76483698912	5.52417599583	7.26924386836	18.01
H	5.72118904264	1.42875809623	0.0920971670547	18.01
H	17.2074907456	2.04734138815	14.2613692218	18.01
H	17.2511386921	4.90416840251	7.08419954793	18.01
H	6.45242998166	3.90481420914	13.5663331058	21.93
H	5.03531899535	3.04851041718	6.38962288395	21.93
H	16.5216206984	0.427589067196	7.96384350495	21.93
H	17.9387316847	6.5235301892	0.787133283103	21.93
H	9.68336584249	5.25562626202	11.5136391011	23.95
H	1.80344125778	1.69673351496	4.33463161887	23.95
H	13.2897429608	1.77936596942	10.01883477	23.95
H	21.1696675455	5.17274110893	2.83982728784	23.95
H	8.69627901934	2.57194375953	12.3147626996	27.44
H	2.79045916312	4.38066871609	5.13465253248	27.44
H	14.2767608661	6.04767568225	9.21881385641	27.44
H	20.1825807223	0.904155724853	2.03870368927	27.44
H	10.948352249	2.5198189224	11.2575405183	28.95
H	0.53843187863	4.43235707376	4.07749926894	28.95
H	12.0247335816	5.99598732459	10.27596712	28.95
H	22.434653952	0.956280561982	3.09592587061	28.95
H	11.1212210897	2.9272150712	8.78380463832	28.76
H	0.365494120189	4.02638522637	1.60367149857	28.76
H	11.8517958232	6.40195917198	12.7497948903	28.76
H	22.6075227927	0.548907385783	5.56966175058	28.76
H	10.7109533654	4.41347359376	9.62345329281	29.32
H	0.775187529332	2.53943752571	2.44242422152	29.32
H	12.2614892323	0.936684931276	11.9110421674	29.32
H	22.1972550684	6.01487080459	4.73001309609	29.32
H	9.24488776128	4.10830553011	7.62017335799	29.58
H	2.24171258556	2.84462856195	0.439741574398	29.58
H	13.7280142886	0.631493895028	13.9137248145	29.58
H	20.7311894643	6.32003886823	6.7332930309	29.58
H	6.26145872955	2.07964086853	9.62731269018	29.43
H	5.22488891866	4.87159325088	2.44591605724	29.43
H	16.7111906217	5.55675114746	11.9075273591	29.43
H	17.7477604325	1.39648158845	4.72615369872	29.43
H	6.94859227002	1.42747163044	11.1244831994	30.15
H	4.53961615906	5.52468139311	3.94354601848	30.15
H	16.0259178621	4.90366300523	10.4099203704	30.15
H	18.434893973	2.04862785394	3.22898318954	30.15
H	6.88022580229	3.9045155653	11.2181195308	29.33
H	4.60632859935	3.04766043086	4.03791747328	29.33
H	16.0926303024	0.428462026125	10.3155489156	29.33
H	18.3665275053	6.52382883305	3.13534685806	29.33
H	8.28150866485	5.27308544061	9.62028307354	29.52
H	3.20437953129	1.67950406241	2.44001209816	29.52
H	14.6906812343	1.79661839457	11.9134542907	29.52
H	19.7678103678	5.15528193034	4.73318331536	29.52
H	7.03853001236	4.35124081113	8.77879661078	28.48
H	4.44779466325	2.60114193845	1.59877833404	28.48
H	15.9340963662	0.874980518528	12.7546880549	28.48
H	18.5248317154	6.07710358721	5.57466977812	28.48
H	9.36834253198	0.600182236585	11.1553813509	29.09
H	2.11885510255	6.35171808833	3.97593738929	29.09
H	13.6051568055	4.07662631002	10.377506027	29.09
H	20.854644235	2.8759402204	3.19808503796	29.09
H	10.3439430534	0.674199964759	9.6726146641	28.90
H	1.14286404685	6.27845845607	2.49346934629	28.90
H	12.6291657498	4.14988594228	11.8599970426	28.90
H	21.8302447564	2.80192249222	4.6808517248	28.90
H	7.93632232607	0.28233329586	9.12770451131	29.36
H	3.55039288379	6.67025620716	1.94803082362	29.36
H	15.0366945868	3.75808819119	12.4054355653	29.36
H	19.4226240291	3.19376618852	5.22576187759	29.36
H	9.29790852994	1.63785473243	7.50981297123	29.49
H	2.1886458717	5.31519422265	0.329909557514	29.50
H	13.6749475747	5.11315017569	14.0235338588	29.50
H	20.7842102329	1.83826772455	6.84365341766	29.49
H	7.62589353624	2.21775216021	7.55061231488	28.71
H	3.86061492019	4.73522787706	0.370433229922	28.71
H	15.3469166232	5.69311652128	13.983033159	28.71
H	19.1121952392	1.25834732417	6.80285407402	28.71
H	10.3802397668	4.32463853639	3.05041714327	30.08
H	1.10250118266	2.62494155558	10.2206261183	30.08
H	12.5888028857	0.851180901399	4.13284027055	30.08
H	21.8665414698	6.10370586196	11.3030492456	30.08
H	10.037258798	2.66663683077	3.60543524155	29.61
H	1.44800913789	4.28117437074	10.7798711757	29.61
H	12.9343108409	6.1471700276	3.57359521323	29.61
H	21.523560501	0.809485626217	10.7480311473	29.61
H	11.7025657915	3.15712488609	3.25092202579	30.96
H	22.7546393449	3.79424706895	10.4231985352	30.96
H	11.2683376419	6.63409732939	3.93024488111	30.96
H	0.216264088464	0.318997570896	11.1025443631	30.96
H	11.2926886015	4.73793864426	0.68290658145	28.96
H	0.193727964523	2.21770621501	7.85072640578	28.96
H	11.6800296675	1.25841624198	6.50273998312	28.96
H	22.7789903045	5.69040575408	13.6705368348	28.96
H	12.5235147468	3.49183571771	0.982538247675	31.12
H	21.9353673896	3.4634186073	8.15178237341	31.12
H	10.4490656866	0.0127038496835	6.20168401548	31.12
H	1.03721304378	6.93650868063	13.3709281412	31.12
H	11.475182963	3.36856472784	-0.439511848364	29.61
H	22.9866856119	3.59073277537	6.73223629115	29.61
H	11.5003839089	-0.114610318393	7.62123009775	29.61
H	-0.0111187400485	7.05977967051	14.7929552647	29.61
H	10.8031653955	0.975531603636	0.307005871918	29.01
H	0.684009266414	5.98045784468	7.48486472393	29.01
H	12.1703109694	4.44790952626	6.86860166496	29.01
H	22.2894670985	2.50059085335	14.046460517	29.01
H	10.4279538641	0.698872540817	2.01122845559	29.42
H	1.05814108548	6.25341831835	9.18979945831	29.42
H	12.5444427885	4.17492607999	5.16366693058	29.42
H	21.9142555671	2.77722694356	12.3422379333	29.42
H	12.0378509382	1.2727052013	1.55648577117	30.81
H	22.4210541708	5.68080320586	8.73273654095	30.81
H	10.9347524678	4.74754119249	5.62070687535	30.81
H	0.551549235175	2.20341725569	12.7969806177	30.81
248
Lattice="6.98332387 0.0 0.0 0.0 14.1724462944 0.0 7.79125254182 0.0 23.7637483303" Properties=species:S:1:pos:R:3:CS:R:1 ENERGY=-2829.17169297 Natoms=248 NAME=cis_0004
C	2.06039479122	1.45913060602	3.78282464044	35.21
C	8.81868803284	8.54450178773	8.09945455749	35.21
C	12.7141816206	12.7133156884	19.9809236899	35.21
C	5.95588139565	5.62794450672	15.6642937728	35.21
C	8.16410616988	0.443964815035	4.13855515837	35.41
C	2.7148369877	7.52907063044	7.74384973939	35.38
C	6.61047024193	13.7284814794	19.6251931719	35.41
C	12.0597394241	6.64337566401	16.0198985909	35.38
C	1.65954501776	13.3697411489	4.55619982574	35.13
C	9.21944702309	6.28273586939	7.32515059011	35.15
C	13.1150313941	0.802705145561	19.2075485045	35.13
C	5.55512938873	7.88971042506	16.4385977402	35.15
C	3.04125151203	13.1283904926	4.58242220687	35.39
C	7.8375589624	6.04176929593	7.29783182713	35.36
C	11.7333248998	1.04406278516	19.1813261234	35.39
C	6.93701744942	8.13067699852	16.4659165032	35.36
C	3.93062669014	14.130476518	4.21421947251	34.06
C	6.94826758417	7.04403688773	7.6658879117	34.06
C	10.8439497217	0.0419767597826	19.5495288578	34.06
C	7.82630882764	7.12840940672	16.0978604186	34.06
C	3.43482466202	1.20319178618	3.83255987304	18.77
C	7.44423022874	8.28881436755	8.04865087634	18.76
C	11.3397517498	12.9692614916	19.9311814739	18.77
C	7.33034618307	5.88363891022	15.715097454	18.76
C	7.66387671443	12.3503993302	5.02960633421	-5.19
C	3.21516420969	5.2639108167	6.85160441516	-5.19
C	7.11069969739	1.82205394754	18.7341419961	-5.19
C	11.5594122021	8.90853547775	16.9121439151	-5.19
C	5.1349218415	2.65672176646	2.55887143239	13.31
C	5.74367214989	9.74161808214	9.32232535034	13.33
C	9.63965457032	11.5157315113	21.2048768979	13.31
C	9.03090426192	4.43083519563	14.4414229799	13.33
C	5.91488230121	3.72570105118	3.03005724387	50.86
C	4.96345330719	10.8104367504	8.85112557221	50.87
C	8.8596941106	10.4467522266	20.7336910864	50.86
C	9.81112310462	3.36200954403	14.9126227581	50.87
C	5.53682609686	3.91029125103	4.37128140967	26.38
C	5.34167012799	10.9953272332	7.51012487278	26.39
C	9.23775031495	10.2621620267	19.3924669206	26.38
C	9.43290628382	3.17711906125	16.2536234575	26.39
C	6.97090053684	4.56387449868	2.38520315107	0.26
C	3.90767250458	11.6486730478	9.49614726479	0.25
C	7.80367587498	9.6085787791	21.3785451792	0.26
C	10.8669039072	2.52377324662	14.2676010655	0.25
C	5.50381592493	6.61100097455	2.71955771464	109.92
C	5.37502946612	13.6961137733	9.16227455057	109.93
C	9.27076048689	7.5614453199	21.0441906157	109.92
C	9.3995469457	0.476332521173	14.6014737797	109.93
C	4.85460423803	7.40045875473	1.56554249515	135.22
C	6.02412941984	0.31304145912	10.3164643532	135.21
C	9.91997217378	6.77198753972	22.1982058351	135.22
C	8.75044699198	13.8594118187	13.4472839771	135.21
C	5.72098333064	8.607274886	1.16523742095	140.18
C	5.1580645768	1.52017882329	10.7166926108	140.18
C	9.05359308118	5.56517140845	22.5985109093	140.18
C	9.61651183501	12.6522674712	13.0470557195	140.18
C	5.90486123146	9.53281669843	2.37843631024	142.69
C	4.97450790888	2.44589521882	9.50354958809	142.69
C	8.86971518036	4.63962959602	21.3853120201	142.69
C	9.80006850294	11.7265510756	14.2601987422	142.69
C	4.36442378562	8.06319015664	4.39531801043	131.78
C	6.514735855	0.976101077253	7.48677263776	131.76
C	10.4101526262	6.10926312114	19.3684303199	131.78
C	8.25984055682	13.1963522005	16.2769756925	131.76
C	5.74279225109	7.5617665528	3.91205104865	135.17
C	5.13623470639	0.474719373359	7.96990691638	135.15
C	9.03178416073	6.61068672497	19.8516972816	135.17
C	9.63834170543	13.6977269211	15.7938414139	135.15
C	6.60477883298	8.76356865753	3.50530036652	140.08
C	4.27443667424	1.67663321127	8.37675536505	140.07
C	8.16979757884	5.40887763692	20.2584479638	140.08
C	10.5001397376	12.4958130832	15.3869929652	140.07
C	3.48336574624	7.89681246543	2.0542145496	130.28
C	7.39554947805	0.809094886902	9.82797386512	130.28
C	11.2912106656	6.27563382901	21.7095337807	130.28
C	7.37902693377	13.3633583909	13.9357744652	130.28
C	3.65817230936	8.82305261026	3.2677975217	143.23
C	7.22112001442	1.73554453144	8.61444675961	143.22
C	11.1164041025	5.34939368419	20.4959508086	143.23
C	7.55345639739	12.436901763	15.1493015707	143.22
C	4.52422318574	10.0227387679	2.86603293281	132.93
C	6.35532053769	2.9354820887	9.01602978208	132.93
C	10.2503532261	4.14970752659	20.8977153975	132.93
C	8.41925587412	11.2369642058	14.7477185482	132.93
C	5.03623350857	2.01769176576	1.18058676681	135.79
C	5.84210908316	9.10251126489	10.7006728658	135.77
C	9.73834290325	12.154761512	22.5831615635	135.79
C	8.93246732865	5.06993502956	13.0630754645	135.77
C	5.72796665451	0.637151486575	1.19341513276	140.43
C	5.15022928742	7.72198495235	10.6879492497	140.43
C	9.04660975731	13.5352948079	22.5703331975	140.43
C	9.6243471244	6.4504613421	13.0757990806	140.43
C	5.73434941253	2.90281409963	0.132536503729	142.87
C	5.14398619588	9.98810846478	11.7484298293	142.87
C	9.04022699929	11.2696391781	23.6312118266	142.87
C	9.63059021594	4.18433782967	12.015318501	142.87
C	3.57187239297	1.86134212763	0.737138717746	141.77
C	7.30635846558	8.94607084355	11.1445399143	141.76
C	11.2027040188	12.3111111501	23.0266096125	141.77
C	7.46821794624	5.2263754509	12.619208416	141.76
O	6.45083145826	12.4691507526	4.87989085377	-76.14
O	4.42826533244	5.38285777218	7.00107547928	-76.17
O	8.32374495355	1.70329554181	18.8838574765	-76.14
O	10.3463110794	8.78958852227	16.762672851	-76.17
O	8.22963768108	11.3200657598	5.66589887195	77.99
O	2.64960575943	4.23320713011	6.21545852723	77.92
O	6.54493873074	2.85238053464	18.0978494583	77.99
O	12.1249706524	9.93923916434	17.5482898031	77.92
O	1.06754072001	4.09055877342	1.99710492699	-98.79
O	9.81095550485	11.1756715721	9.88442007196	-98.81
O	13.7070356918	10.081887521	21.7666434033	-98.79
O	4.96362090697	2.99678170563	13.8793282583	-98.81
N	4.36227292187	2.28062089279	3.63416364189	1.87
N	6.51669816901	9.36620855754	8.24717979064	1.86
N	10.4123034899	11.891832385	20.1295846884	1.87
N	8.25787824281	4.80623773691	15.5165685397	1.86
N	4.60121433141	3.040539213	4.74035007619	-74.39
N	6.27781960939	10.1260989445	7.14100732298	-74.37
N	10.1733620804	11.1319070815	19.0233982541	-74.39
N	8.49675680243	4.04635433332	16.6227410073	-74.37
N	6.71443098439	5.89877177305	2.3143573304	85.87
N	4.16456105647	12.9836192055	9.56718861852	85.83
N	8.06014542743	8.2736745214	21.4493909999	85.87
N	10.6100153554	1.18882708898	14.1965597118	85.83
H	1.70045332899	2.43507106682	3.45568385042	22.17
H	9.17862251174	9.5200511824	8.42732161319	22.17
H	13.0741230828	11.7373752276	20.3080644799	22.17
H	5.59595390007	4.65239511205	15.3364267171	22.17
H	7.08787819498	0.617479463233	4.12646702475	23.12
H	3.79110686255	7.70228499571	7.75669207198	23.12
H	7.68669821683	13.5549738145	19.6372813055	23.12
H	10.9834695493	6.47016129874	16.0070562583	23.12
H	3.40782713194	12.1600688382	4.9127543759	21.89
H	7.47096937584	5.07383172428	6.96654294274	21.89
H	11.3667492799	2.01238443962	18.8509939544	21.89
H	7.30360005265	9.09861457017	16.7972053876	21.89
H	5.00473173459	13.9465567172	4.26674803466	21.18
H	5.87426728959	6.86043831986	7.61270291711	21.18
H	9.76984467723	0.225896560547	19.4970002956	21.18
H	8.90030912223	7.31200797459	16.1510454132	21.18
H	7.49574620893	10.7606456512	6.09896970175	17.31
H	3.38355309817	3.67409428778	5.78220613101	17.30
H	7.27883020288	3.41180064322	17.6647786285	17.31
H	11.3910233136	10.4983520067	17.9815421993	17.30
H	5.88402299303	4.65108923049	5.08311954503	22.00
H	4.99432658202	11.7362928124	6.79846132051	22.00
H	8.89055341878	9.52135706396	18.6806287853	22.00
H	9.78024982979	2.43616046534	16.9652870098	22.00
H	7.49418194439	6.4447559665	1.95466726783	24.14
H	3.38481707979	13.5295265824	9.9272906972	24.14
H	7.28039446743	7.72769032795	21.8090810625	24.14
H	11.389759332	0.642919712092	13.8364576331	24.14
H	4.79217332263	5.83625007444	3.03150977523	27.14
H	6.08686061816	12.9215234896	8.85021774011	27.15
H	9.98240308918	8.33619622001	20.7322385551	27.14
H	8.68771579366	1.25092280483	14.9135305902	27.15
H	4.72278003334	6.72254560672	0.707291991525	29.21
H	6.15563937496	13.8076304722	11.1748126233	29.21
H	10.0517963785	7.44990068773	23.0564563388	29.21
H	8.61893703686	0.364815822293	12.588935707	29.21
H	5.24788408842	9.14763750373	0.331742800444	28.76
H	5.63124063559	2.0603598746	11.5502640479	28.76
H	9.5266923234	5.02480879072	23.4320055298	28.76
H	9.14333577623	12.1120864198	12.2134842824	28.76
H	6.70230793415	8.28039247897	0.784415820345	29.39
H	4.17658634017	1.19357574921	11.0973535949	29.39
H	8.07226847767	5.89206079881	22.9793325099	29.39
H	10.5979900716	12.9788775286	12.6663947353	29.39
H	6.50994529482	10.4051106664	2.0911633162	29.84
H	4.36951462873	3.31826600331	9.79080861548	29.84
H	8.26463111699	3.76734261142	21.6725850141	29.84
H	10.4050617831	10.8541872745	13.9729397148	29.84
H	4.49979551884	8.71677340428	5.27000725844	29.00
H	6.37958060482	1.6298309747	6.61216020631	29.00
H	10.274780893	5.45567289017	18.4937410719	29.00
H	8.394995807	12.5426153198	17.151588124	29.00
H	3.75688857558	7.20563100208	4.72266830016	29.88
H	7.12206156533	0.118437172835	7.15933156482	29.88
H	11.0176878362	6.96681529237	19.0410800301	29.88
H	7.65251484649	14.0540091216	16.6044167655	29.88
H	6.22991400764	7.00333807621	4.72571302936	29.49
H	4.64908501654	14.0889117743	7.15611923584	29.50
H	8.54466240418	7.16911520156	19.0380353009	29.49
H	10.1254913953	0.0835415034568	16.6076290945	29.50
H	7.61967227433	8.45429120998	3.19106475902	29.67
H	3.25949434962	1.36748844687	8.69103287249	29.67
H	7.15490413749	5.7181620678	20.5726835713	29.67
H	11.5150820622	12.8049648309	15.0727154578	29.67
H	6.74281121259	9.40993813161	4.38218936155	29.03
H	4.13647412786	2.32295380209	7.49982447007	29.03
H	8.03176519922	4.76250816283	19.3815589687	29.03
H	10.638102284	11.8494994757	16.2639238602	29.03
H	2.85069057027	7.03583148218	2.31912694061	29.25
H	8.02817577075	-0.0519489462689	9.563145274	29.25
H	11.9238858415	7.13662179559	21.4446213897	29.25
H	6.74640064106	14.224402224	14.2006030563	29.25
H	2.97409288637	8.44042931209	1.24081095187	28.96
H	7.90475250467	1.35266983362	10.6414123795	28.96
H	11.8004835254	5.73201698235	22.5229373784	28.96
H	6.86982390714	12.8197764608	13.1223359508	28.96
H	2.66461292243	9.15903428829	3.61338825338	29.42
H	8.2148400178	2.07130274311	8.26901664438	29.42
H	12.1099634894	5.01341898948	20.1503600769	29.42
H	6.55973639402	12.1011435513	15.4947316859	29.42
H	4.03645896339	10.6035976807	2.06663788276	29.57
H	6.84312665999	3.51644575141	9.81532706559	29.57
H	10.7381174484	3.56884861374	21.6971104475	29.57
H	7.93144975183	10.656000543	13.9484212647	29.57
H	4.66523046133	10.7000862666	3.72052640819	28.53
H	6.21452276183	3.61264802105	8.16133379031	28.53
H	10.1093459505	3.47236701115	20.0432219221	28.53
H	8.56005364999	10.5597982734	15.60241454	28.53
H	6.78191084294	0.727061781401	1.48225937467	29.97
H	4.09611749922	7.81190921382	10.3996287571	29.97