9
Properties=species:S:1:pos:R:3:forces:R:3 energy=-4209.784940540707 pbc="F F F"
H        0.16712676      -1.19985031       0.84958249      -1.40142226       0.15454325      -0.35446042
H       -0.93496191      -0.92263607      -0.68150202       0.77472393      -0.76527744      -0.09747575
H       -1.75179348       0.29946017       1.28426460       0.07002592       0.25289791       0.12011226
H       -0.20725260       1.35456114       1.05486243      -0.91427374       0.01068309       0.05924538
H       -1.47331516       1.17441302      -0.27787521      -0.10627335       0.47679612       0.14178070
H        1.05895494      -0.40161254      -1.43156577       0.16383682       0.02095604      -0.76155479
C       -0.17406277      -0.48797864       0.01855790      -0.76525986      -1.13343028       1.76516900
C       -0.98570278       0.68695664       0.58412528       1.46915270       0.02024174      -0.06583471
O        1.06846394      -0.16863939      -0.50269058       0.70948978       0.96258962      -0.80698173
9
Properties=species:S:1:pos:R:3:forces:R:3 energy=-4209.407730576216 pbc="F F F"
H        1.18129132       0.88525915      -0.17645318      -1.20460374      -0.69628372       0.02025583
H        0.17896233       0.92701421       1.19442387      -0.57088681      -0.45462318      -0.00136289
H       -0.96660517       1.58609307      -1.40722389       0.51695101       0.32405084       0.58688895
H       -1.02901306      -0.11620693      -1.33654573      -0.38595233      -1.76622187      -1.59607057
H       -1.95838617       0.69792764      -0.11042000       0.80358314       0.29702684      -0.62655136
H        0.22355605      -1.66335171       0.81210607      -1.49261336      -0.12794420       0.60389094
C        0.22927937       0.34043263       0.22884318       1.77541572       3.21560329       0.05172506
C       -0.98169102       0.72626404      -0.70885262      -0.55806332      -0.76250121       2.27905633
O        0.71408976      -0.94681151       0.42485929       1.11616974      -0.02910675      -1.31783233
9
Properties=species:S:1:pos:R:3:forces:R:3 energy=-4209.560889122907 pbc="F F F"
H       -0.16287301      -0.64302268      -1.31618949      -0.06230963      -0.20024324      -0.33625649
H        1.27993147       0.23446093      -0.84324063       0.37277640       0.46121529       0.01255038
H       -0.15128420       1.86927971       0.33956012       0.53316521       0.98796035       0.40346885
H       -0.73139242       1.33792963      -1.27271822      -1.13196994       1.32063360      -0.35401979
H       -1.58192605       0.89916371       0.35305249      -0.45958428      -0.57431147      -0.35221626
H        0.47292663      -1.91071820       0.44558433      -0.24712974       3.21453335       0.29550413
C        0.28678675      -0.08054401      -0.47353047      -1.38370885      -0.79497045       0.25142919
C       -0.66671069       1.10165901      -0.21085351       1.65911734      -0.76353619      -0.82560727
O        0.34024510      -0.87922676       0.65828068       0.71964343      -3.65128129       0.90514720
9
Properties=species:S:1:pos:R:3:forces:R:3 energy=-4209.977514506122 pbc="F F F"
H        0.73682143       0.60933282       1.20367749       0.36254151      -0.43490518      -0.12398650
H        0.20738342      -1.18308217       1.05047296       0.08849416       1.58399626      -0.72506399
H       -1.69259266       0.49096048       1.31016597      -0.07748187      -0.13407181      -0.52223545
H       -1.30606593       1.32318797      -0.23431622       0.44311739       0.64632279      -0.19725947
H       -1.70920880      -0.40667253      -0.34700013       0.23663084       0.92797968       0.92739686
H        1.35608725       0.56051382      -0.94232262      -0.46659650      -0.68457938       0.16136413
C        0.23183474      -0.12985821       0.52582658      -0.08156925      -0.36455720      -0.17396054
C       -1.18366458       0.38676774       0.31135695      -1.17425597      -2.05749556       0.14290890
O        0.86614730      -0.28079091      -0.75703093       0.66911969       0.51731035       0.51083605
9
Properties=species:S:1:pos:R:3:forces:R:3 energy=-4209.390051145951 pbc="F F F"
H       -0.87935395      -0.15919401      -1.21730030       1.23214628       0.27228856       0.47124511
H       -0.10909584       1.41295640      -0.83407068       0.22230645      -1.56935541       1.21633831
H       -0.93711596       1.02779721       1.56785159      -0.58066544      -0.92114471      -0.67763786
H       -2.14823902      -0.25472395       0.62550138       1.85587467       1.72596609       0.24361144
H       -0.83256198      -0.75066756       1.49935626       1.28687593      -0.68235841       0.24457036
H        1.10102760      -1.19816206      -0.86612535      -0.25143366       1.21204379       0.64111657
C       -0.16215553       0.30163890      -0.42246818      -1.52247447      -0.54175167      -1.46178875
C       -1.01965811       0.11629742       0.87294359      -1.89065749       0.85216477      -0.14020395
O        1.12685261      -0.31875228      -0.38700783      -0.35197231      -0.34785305      -0.53725121
9
Properties=species:S:1:pos:R:3:forces:R:3 energy=-4209.5825453696025 pbc="F F F"
H        0.46401241       0.79285848      -1.38125642      -0.20410714      -1.34756308       1.42505673
H        0.20788686       1.53876961       0.19087164       0.09702812      -1.49022208      -0.09519430
H       -1.77791125       0.57126884      -1.11048699       0.28822508      -0.78580904       1.60612189
H       -1.43206998      -1.09946349      -0.58902215       0.25803004       1.14632401       0.98882969
H       -1.94568196       0.23901528       0.70762861       0.97920317      -0.48870214      -0.51242376
H        1.07884093      -1.25289728       0.08899116      -0.19614366      -1.25305768      -0.84267081
C        0.16051448       0.47118191      -0.27603520       0.55353160       1.01740772       0.77200556
C       -1.29449855      -0.01470279      -0.19208423      -1.32132008       0.50331881      -3.12043748
O        1.06572144      -0.39251262       0.48328917      -0.45444706       2.69830344      -0.22128752
9
Properties=species:S:1:pos:R:3:forces:R:3 energy=-4209.682065654118 pbc="F F F"
H        0.25646646      -0.70603082       1.24814148       1.11035262      -0.42194080       1.11353996
H       -0.74156522      -1.30415920       0.04132189       0.08498471      -0.62473205      -0.84987324
H       -1.84240457       0.32768948       1.12246832       1.25304884       0.72372866       0.33578187
H       -0.47651709       1.63510579       0.74587179       0.00095121       0.11263318       0.65783558
H       -1.64336372       0.94310841      -0.38378703       0.66647660       0.02764569      -0.53192368
H        0.96245446       0.67635883      -0.73651157       0.54397624       1.21342519      -0.57025252
C       -0.07542610      -0.45712149       0.25290407       0.36006132      -0.80037075      -0.24588404
C       -0.96684674       0.68763743       0.47179200      -3.03558894       0.70614375      -0.52944992
O        1.00191441      -0.27218050      -0.67238707      -0.98426264      -0.93653292       0.62022599
9
Properties=species:S:1:pos:R:3:forces:R:3 energy=-4209.70351705067 pbc="F F F"
H       -1.16740370      -0.04642054      -1.04643286      -0.39008086       0.00567443       0.83655636
H       -0.41837058       1.37343273      -0.37195045       0.24605640       2.14162121      -0.26053100
H       -1.21933400       0.63701467       1.72605327      -0.67011908       0.24976990       0.12452361
H       -0.76561308      -1.04364447       1.48839180       0.39111017      -0.79480508       0.14907714
H        0.40770982       0.37763062       1.55269789       2.53518720       0.19029749       1.36174776
H        1.52310139      -0.22711024      -0.23440265      -0.63309488       0.11722213      -0.44698448
C       -0.40725086       0.31780532      -0.30939538       0.77744262      -3.01427217       0.24344699
C       -0.49867449      -0.02438477       1.23740941      -2.30867489       0.65501467      -2.81914219
O        0.78332510      -0.28782980      -0.89285742       0.05217336       0.44947748       0.81130586
9
Properties=species:S:1:pos:R:3:forces:R:3 energy=-4209.301301296521 pbc="F F F"
H       -1.08428403      -0.69356513      -0.54554745      -1.55427697      -1.23680887      -0.53150001
H       -0.78964876       1.07738077      -0.63811546       0.08803599      -1.17064763       0.14465710
H       -1.42217706       0.37218923       1.59026260      -1.70951432       0.95133590      -0.38859774
H       -0.31052444      -0.61642474       1.86346364       1.02699495      -1.46667298      -0.18956082
H        0.14669883       0.96785183       1.68382130       0.72656798       0.99483116      -0.27545091
H        1.53006956       0.12554468      -0.63059957       2.38668542       1.71557456       1.37343796
C       -0.39506549       0.04273486      -0.23225657      -0.32560528       3.23450713      -2.90112801
C       -0.44644767       0.21672187       1.17279286       0.37967462      -0.55663173       4.34041857
O        0.75323788      -0.27254369      -0.91542002      -1.01856240      -2.46548760      -1.57227614
9
Properties=species:S:1:pos:R:3:forces:R:3 energy=-4209.297368657896 pbc="F F F"
H        0.26198382       1.46392721      -0.13934628      -0.46069428       2.26201598      -0.45619166
H        1.01269733       0.46978893       1.13741496      -0.11480319      -0.03216127      -0.35473527
H       -1.73269756       0.88549675       1.13283804       0.72887884      -2.37429656      -1.12850610
H       -1.63732582      -0.53755268      -0.24255852       0.20945453       0.50800352       0.92861320
H       -1.20171090      -0.82079587       1.52365035       0.49024048      -0.66942889       0.34398297
H        0.26375071       0.03176322      -1.59627581       1.33222275      -1.17479723       1.14956298
C        0.29654172       0.50469098       0.28007993      -0.56070914      -5.07425306      -0.14343099
C       -1.14907517      -0.11796465       0.69799166      -0.03144023       4.29358823      -0.49512573
O        0.83102575      -0.38444223      -0.84862332      -1.59314975       2.26132934       0.15583055
9
Properties=species:S:1:pos:R:3:forces:R:3 energy=-4209.708969731025 pbc="F F F"
H        1.18544420       0.47993553      -0.77193565       1.14160824       0.36991034      -1.49320595
H        0.21616322       1.49827007       0.28010052      -0.00643856       0.46592827       0.31807688
H       -1.54437825       0.79530867      -1.46921135       0.51212937      -0.08242445      -0.27910532
H       -0.93680511      -0.97794427      -1.18058585       0.52167171       0.61945980      -0.94681492
H       -1.69286157      -0.21725281       0.02235908       0.72154569       1.11833728      -0.65555573
H        0.85485769      -0.10103213       1.66994979       0.02876628       0.14677188       0.05824116
C        0.31831760       0.49814431      -0.15661292      -0.71036385      -1.25701816       1.35882761
C       -0.96531029       0.09022651      -0.83965906      -1.87801604      -1.81231472       1.89583837
O        0.60643796      -0.53484957       0.83920365      -0.33090279       0.43134975      -0.25630200
9
Properties=species:S:1:pos:R:3:forces:R:3 energy=-4209.417580569899 pbc="F F F"
H        0.58942011       0.56850416       1.45765342      -0.16892807       1.30310782      -0.48412711
H        0.19084583      -0.97177401       1.11895344      -0.71263121       0.25196758      -0.32260979
H       -1.91754606      -0.63864157       0.32633664      -0.39204662       0.68084562      -0.09508195
H       -1.74687615       1.20677948       0.04724915      -0.91668395       1.41987554       0.43445405
H       -0.99806795       0.04567495      -1.06048419      -0.71517166       0.00848619      -0.17153717
H        1.44465926       0.56652412      -0.77008481       0.46607647       1.07111289      -0.39557659
C        0.14530500       0.03149213       0.59344123      -0.34026464      -2.52505504      -0.19715251
C       -1.32273297       0.23833993      -0.01808530       2.75428105      -1.99227066       0.42588076
O        1.03739242      -0.25161075      -0.50245265       0.02536857      -0.21806999       0.80575027
9
Properties=species:S:1:pos:R:3:forces:R:3 energy=-4209.62568067579 pbc="F F F"
H       -1.43890599      -0.04261626       0.04499329      -0.11765809      -0.68393619      -0.55792140
H       -0.27171802      -0.73808196      -1.24139944      -0.59550467       0.66715455      -0.41407821
H       -0.74988007       1.96914652      -0.40386762      -0.28434750       0.44799009      -0.35137572
H        0.84527570       1.63080645       0.40630284      -1.39281698      -0.88313829      -0.53435569
H        0.72931487       1.31501129      -1.24821332       0.37147398       0.68017596      -1.40837175
H       -0.25795770      -1.04518567       1.39416107       0.50808147      -0.02999177      -0.12029008
C       -0.37672150      -0.16038447      -0.29537191      -1.12870192      -0.88695227       0.55976498
C        0.07656428       1.25944447      -0.39901712       2.41049719       0.94720161       1.48085200
O        0.29732708      -1.01976322       0.58729970       0.22897646      -0.25850368       1.34577591
9
Properties=species:S:1:pos:R:3:forces:R:3 energy=-4209.757423399492 pbc="F F F"
H       -0.48917455      -1.31430462      -0.63255767      -0.37861281      -1.13969920      -0.34763707
H       -0.79148257       0.47502047      -1.23857661       0.65181308      -1.96339680       0.79640724
H       -1.98997385       0.15442517       1.07170767      -0.12198253      -0.19045988      -0.73421573
H       -0.46969859      -0.22659287       1.73313304       0.57218054      -0.44601446       0.59769622
H       -0.69232569       1.32907273       0.98433240       0.12882794       0.24088617      -0.20914558
H        1.41693759       0.47579588       0.31310839      -0.68073779      -0.34376710      -0.40753053
C       -0.27858835      -0.28003755      -0.43222729      -1.81162381       4.14544317      -0.53259849
C       -0.90491612       0.25323355       0.85648637      -0.24335644      -0.16081577       0.71683064
O        1.07837685      -0.03625684      -0.45904916       1.88349182      -0.14217614       0.12019335
9
Properties=species:S:1:pos:R:3:forces:R:3 energy=-4209.733222431089 pbc="F F F"
H       -0.57660767      -1.28615216      -0.67026655       0.20739430       0.93095424      -0.03775985
H       -0.75700260       0.52706622      -1.19368888       0.56561075      -1.15980734       0.60510301
H       -2.05342424       0.33616306       0.81875616       0.74514950      -0.44061976      -0.38106904
H       -0.80510263      -0.44272026       1.68974471       0.92609033      -1.56588823       2.26780940
H       -0.61162320       1.22955160       1.03502202       0.54665513       0.47248392       0.83126848
H        1.21938944       0.41082614      -1.21379506       0.98914527       0.59851882      -1.05855104
C       -0.29376757      -0.20132971      -0.40779038      -0.66162976      -0.48006847      -1.23767698
C       -0.92128671       0.19647111       0.88363364      -2.25428704       2.07406771      -1.67828461
O        1.13788557      -0.04525437      -0.38655708      -1.06412843      -0.42964089       0.68916063
9
Properties=species:S:1:pos:R:3:forces:R:3 energy=-4209.638211276823 pbc="F F F"
H       -1.45666131       0.27539563      -0.23977018      -1.49873639       0.01843476       0.03280929
H       -0.18851714      -0.13814463      -1.42816244      -0.22949022       0.35611637      -0.72418102
H        1.37903252       0.85525728      -0.02389291       2.44495898       0.08067883      -0.37290079
H        0.14404508       2.16390268      -0.55387475       0.80013138      -1.36349781       0.48856294
H        0.29274240       1.62288314       1.07114096      -0.52458565      -0.26928720       1.29651325
H        0.31242072      -1.01058649       1.09121061       0.48850905       0.38364431       1.71248435
C       -0.40961095       0.09678593      -0.38593292       0.24806639      -3.28760434       0.78726665
C        0.39610325       1.21004824       0.07991633      -0.75773701       3.02904686      -1.27351945
O       -0.02035437      -1.21855422       0.23497656      -0.97111658       1.05246817      -1.94703517
9
Properties=species:S:1:pos:R:3:forces:R:3 energy=-4209.482905282794 pbc="F F F"
H       -1.40103179      -0.13505771      -0.41215083      -2.97527372      -0.45828464       0.79577315
H       -0.27410342      -0.61390244      -1.43780747       1.42079168      -1.03823824      -1.82630929
H       -0.38000352       1.89837227      -1.01944435      -0.07636565      -0.47181893       0.48814179
H        0.02660654       1.71996742       0.73190865       0.10592609      -1.07572828      -0.64505966
H        1.11514611       1.17495290      -0.68345936       1.31360075       0.46546105       0.45323170
H        0.25925904      -1.81175512       0.55349340      -0.07529792      -0.82248286      -0.10640524
C       -0.36176115      -0.23418256      -0.45732575       0.80199929       2.00493083       3.49599381
C        0.11360337       1.19645302      -0.27366449      -0.34059112       1.52075250      -1.86770427
O        0.22743806      -0.86311724       0.69159894      -0.17478936      -0.12459143      -0.78766199
9
Properties=species:S:1:pos:R:3:forces:R:3 energy=-4209.273287918189 pbc="F F F"
H        0.12549744      -0.81275685       1.31667603       0.24304441      -0.10961069      -0.04952373
H       -0.43211239      -1.28015574      -0.37668004      -0.62015857      -0.67219216       0.67834605
H       -1.95687532      -0.12698744       0.68508167       0.25224423       1.59045112       0.00267590
H       -1.00999307       1.56854261       0.69893193       0.20523319      -0.86760116       0.12141782
H       -1.39264738       0.59538697      -0.77898325      -0.37360481       0.80112933      -0.92735192
H        1.89682687      -0.56092387      -0.39668988      -0.43478948      -0.41996094       0.48593738
C       -0.11985849      -0.45706087       0.29021524       5.64421833      -2.42940709      -1.27799497
C       -1.10381447       0.53410500       0.26175056      -4.17581819       1.18853809       0.34455931
O        1.09300749      -0.01906781      -0.48670261      -0.74036910       0.91865352       0.62193418
9
Properties=species:S:1:pos:R:3:forces:R:3 energy=-4209.649975419362 pbc="F F F"
H       -0.55100876       0.46864764       1.32674224       0.55976966       0.07456001       0.72866579
H       -1.48063994      -0.09782450       0.03319797      -0.08870309      -0.52142571       0.07357528
H        1.00153521       0.78096860      -0.87854841       2.29310901      -0.54221499      -1.25593248
H       -0.58962627       1.22183329      -1.59806415       0.47186706      -0.05034628       0.56780441
H        0.26847246       2.13686265      -0.26591360      -0.44447195       0.44712687       0.36057909
H        0.52794569      -1.48228927      -0.44396493       0.22382037      -0.74071738      -2.65092519
C       -0.40748035       0.06664690       0.32158298      -2.45795123       0.75774411      -0.80366094
C        0.04143735       1.14246359      -0.66572518      -0.90432722       0.16441084      -0.12676654
O        0.32659315      -1.09854230       0.37341665       0.34688749       0.41086258       3.10666058
9
Properties=species:S:1:pos:R:3:forces:R:3 energy=-4209.597085687698 pbc="F F F"
H       -1.29843020       0.09349653      -0.88897398       1.03185779      -0.01869517       0.23562842
H       -0.20631646       1.42827155      -0.37998227      -0.27928504       0.35913695       0.37736659
H       -1.28088277       0.61956854       1.67600591      -2.01163508       1.24926222       1.15778290
H       -0.67936275      -1.18203097       1.55888120      -0.33756030       1.73461246      -0.72869994
H        0.42137582       0.27026338       1.64237221      -0.52138724      -0.24365247       0.54980509
H        1.50165855      -0.25831732      -0.31734824       1.71567530       0.11921813       1.59372300
C       -0.35239584       0.33550455      -0.29272150      -0.40671297      -1.32981357       0.20083094
C       -0.59609608      -0.05046819       1.27183283       3.99350861      -1.85114117      -2.59526156
O        0.80910883      -0.27525794      -0.94234143      -3.18446105      -0.01892734      -0.79117545
9
Properties=species:S:1:pos:R:3:forces:R:3 energy=-4209.5188463413115 pbc="F F F"
H       -0.75846219      -0.56169814      -1.22063259      -0.53483211      -0.04605979       1.18373753
H       -0.30803147       1.06693807      -1.12660709       0.27183481      -0.19273582       0.98586125
H       -2.03356844       0.50760914       0.84039349      -0.66494998       0.41004378      -0.18700252
H       -0.88343855      -0.55045125       1.44501545       0.35957574      -3.52405042       1.91668565
H       -0.50618756       1.05407555       1.55373943       0.83660809       1.57204916       0.72456324
H        1.78728975       0.22241501      -0.66641651      -0.74386050      -0.15607409       0.26610767
C       -0.29512056       0.13737315      -0.46254404       1.81847971      -0.11804797      -1.24847695
C       -0.96674251       0.32626508       0.94126084       0.11417121       0.91393292      -3.87443641
O        1.11746174      -0.45769384      -0.41137608      -1.45702696       1.14094227       0.23296054
9
Properties=species:S:1:pos:R:3:forces:R:3 energy=-4209.441417944836 pbc="F F F"
H       -0.16238760      -0.29204978      -1.54135473      -0.70019596      -0.29867955       1.12715000
H        0.01395808       1.27701694      -0.97584823      -0.87517198       0.03650988       1.09018251
H       -1.13453579       0.40057608       1.57855725       1.10099956       0.00488556      -0.79099193
H       -2.24132650       0.38641248       0.39500765       0.11440431      -0.53358574      -0.92393955
H       -1.37281935      -1.13865918       0.88505615       0.21773497      -0.13344477      -0.85594830
H        1.64828965       0.41912825       0.62695153      -1.34272082      -0.65054799      -1.16397078
C       -0.12391654       0.24248832      -0.53370511       1.94807148      -0.58573524       0.35001941
C       -1.23675744      -0.08723224       0.55098222      -0.18662220       1.53127176       0.60890896
O        1.22606267      -0.18294607      -0.07397582      -0.27649930       0.62932615       0.55858968
9
Properties=species:S:1:pos:R:3:forces:R:3 energy=-4209.453818331325 pbc="F F F"
H        1.18522012       0.75022685      -0.56905675       0.44818622      -0.98553914       0.78934046
H        0.36007805       0.98931376       0.97492576      -0.23609245       1.28394446       0.57360009
H       -1.60870160      -0.21907968      -0.95537583       1.26708203       1.14061446       0.58552354
H       -1.40063162       1.47192200      -0.35662330      -0.27227441       0.49718637      -0.40315513
H       -0.53552669       0.83509482      -1.82974923       0.59772867       0.78589266      -1.67658747
H        1.20629958      -0.87749002       1.28879677      -1.91154679      -0.53910817      -1.44963766
C        0.35854246       0.33911769       0.11066212      -0.18952225       1.53654093      -1.68918912
C       -0.83230513       0.66430324      -0.83230564      -2.00697244      -2.67053443       2.16763852
O        0.40556427      -0.93920463       0.63289974       2.30341137      -1.04899713       1.10246678
9
Properties=species:S:1:pos:R:3:forces:R:3 energy=-4209.673448788526 pbc="F F F"
H       -0.96895871      -1.15301423      -0.42260045       0.09709836       1.47129510       0.37688652
H       -0.82961070       0.68455695      -0.88079150      -1.49536418       0.20516896      -0.87657673
H       -1.60691575       0.60881202       1.21545903       0.60339004       0.16224371       0.37330888
H       -0.31842718      -0.49409530       1.77308288       0.28138414       0.95083608       0.16409094
H        0.06271647       1.27020655       1.35827380       0.79637176       0.78587728      -0.01180738
H        0.94542575      -0.75902020      -1.54296323      -0.31660801       0.61933895       0.89352205
C       -0.43329865      -0.12509463      -0.27172555      -0.09847899      -0.59564232      -1.95308981
C       -0.50242823       0.39572437       1.09704950      -2.32122167      -2.41689564       1.81426125
O        0.87347471      -0.21317428      -0.71409506       2.45342845      -1.18222207      -0.78059572
9
Properties=species:S:1:pos:R:3:forces:R:3 energy=-4209.81488068274 pbc="F F F"
H       -0.29628961      -0.32103933      -1.50281619       0.13221414      -0.03544694       0.31267978
H       -0.24729977       1.33316057      -0.77163369       0.48632597      -0.80431107       0.05704303
H       -0.87933192       0.41591175       1.54130966      -0.14791130       0.33749253      -1.19415528
H       -2.11039350       0.32653284       0.27006689      -1.79214909       0.38125539      -0.39087019
H       -1.22548615      -1.06085611       0.99257887      -0.25845674      -1.70454124      -0.57859822
H        1.35120045       0.16748156       0.78340482      -0.07654228       0.79650659       1.52203430
C       -0.09294194       0.21072150      -0.53944299      -1.42891935       0.69191073       1.02917705
C       -1.17567506      -0.08729610       0.54222987       2.32960506       1.27945732       1.36042483
O        1.16695864      -0.14700343      -0.08480363       0.75583362      -0.94232336      -2.11773529
9
Properties=species:S:1:pos:R:3:forces:R:3 energy=-4209.227057237986 pbc="F F F"
H        0.85842335       1.22324254      -0.64460321      -0.85374060      -0.15776207      -0.22056812
H       -0.56571146       1.37254966       0.55200738       0.85236048      -0.26302106      -0.03467540
H       -1.64957327       0.22926788      -1.49773278       1.72166659      -0.28213162      -0.79079200
H       -0.22974102      -1.09378541      -1.14870795      -1.02726801      -0.24524147      -0.58898882
H       -1.84406848      -0.55146861      -0.20795875       1.62561575      -0.75420524       0.82189876
H        0.94222304      -1.13518193       0.39994306      -0.12636087      -0.73203050      -1.04101020
C        0.06361980       0.66513761      -0.06713187       0.06854486      -2.17907875       1.12856344
C       -0.89972146      -0.28371579      -0.78908388      -2.06766479       1.86289168      -0.76653224
O        0.78436538      -0.28923795       0.80321926      -0.19315342       2.75057897       1.49210459
9
Properties=species:S:1:pos:R:3:forces:R:3 energy=-4209.853392809961 pbc="F F F"
H        0.42029528       0.22366452       1.44236304       0.24286870      -0.27650434      -0.90812330
H       -0.24677067      -1.20701211       0.73995025       0.04062725      -1.88948455       0.15832406
H       -1.98016521       0.12836680       0.95041646       0.46014478       0.60861267      -0.94002520
H       -1.00314907       1.55975534       0.29201345      -0.63202180       0.53080474      -0.21477481
H       -1.61402628       0.30245927      -0.88922312      -0.00487183       0.03975462       0.46744034
H        1.89227045      -0.00039372      -0.26726194       1.01710469       0.39805575       0.65886788
C        0.06867869      -0.22905465       0.44813384       0.37822668       1.01302774       0.85066339
C       -1.24597710       0.49773686       0.15119753       0.28059379      -0.29446654       0.21707554
O        1.04321581      -0.26522294      -0.59281332      -1.78267225      -0.12980008      -0.28944790
9
Properties=species:S:1:pos:R:3:forces:R:3 energy=-4209.742719353708 pbc="F F F"
H        0.57753937      -0.26042021       1.41340096      -0.13916939      -0.24465752      -0.43348634
H       -0.27683424      -1.50087602       0.48117980      -0.20962504      -0.44014576      -0.50741535
H       -1.86274266       0.88068791       1.09261736       1.18398050      -0.99635948      -0.07229466
H       -0.58468470       1.52003383       0.06669663       0.42903879       0.84062082      -0.29979366
H       -1.74729115       0.32289173      -0.61050185       1.01692096       0.40166512       1.03875971
H        1.48275796      -0.91336628      -0.67675930       0.05364264       0.89190663      -0.54613268
C        0.06372580      -0.45638248       0.41100752      -0.75131845       2.29937556       2.16405327
C       -1.07560329       0.58837265       0.31051540      -2.33929941      -0.81073734      -1.18278098
O        0.91145673      -0.10226297      -0.65294048       0.75582946      -1.94166809      -0.16090931
9
Properties=species:S:1:pos:R:3:forces:R:3 energy=-4209.6277568225305 pbc="F F F"
H       -0.25585398      -1.03632636       1.07314394      -0.21296012       0.46950977      -0.16069482
H       -0.77967870      -1.14611819      -0.56945519      -0.66177585      -0.10202485      -0.75301929
H       -1.97674451       0.80225353       0.71465716      -1.29314500      -0.50651824      -0.51675617
H       -0.64576894       1.70500938       1.01874350       0.77208218      -1.46690777      -0.37628277
H       -0.91359612       1.51285482      -0.62021315      -0.64754402       0.16991408      -1.25237228
H        1.16701562      -0.95816042      -1.11972164       0.30584285       0.74770986       0.83061125
C       -0.26523197      -0.46226433       0.09997404       1.67359435       0.53330966       1.65612411
C       -0.99919583       0.90011057       0.26352082       1.74344014       0.57235151       1.39888417
O        1.16362647      -0.38419240      -0.30419452      -1.67953447      -0.41734402      -0.82649419
9
Properties=species:S:1:pos:R:3:forces:R:3 energy=-4209.585240689581 pbc="F F F"
H        0.20445352      -1.53505334      -0.12321536      -0.32622106       0.02578900       0.46735956