18
Lattice="4.27506194 -0.0 0.0 -2.13753097 3.70231224 0.0 0.0 0.0 41.86801532" Properties=species:S:1:pos:R:3:forces:R:3 frame_id=0 subset=mc3d_ext atomization_energy=-39.068213949911296 energy=-3284195.74073413 stress="1.153e-05 0.0 -0.0 0.0 0.0001266 -2.04e-06 -0.0 -2.04e-06 -0.00042605" pbc="T T T"
Cd      -0.00000000       2.46820816      27.91196300       0.00000024       0.00000010       0.00033262
Cd       2.13753097       1.23410408      13.95605233      -0.00000136      -0.00000165      -0.00032850
Cd      -0.00000000      -0.00000000       6.97793827      -0.00000010       0.00000621      -0.00167566
Cd      -0.00000000      -0.00000000      34.89007705       0.00000017      -0.00000707       0.00167855
Cd      -0.00000000      -0.00000000      20.93400766      -0.00000020      -0.00000036      -0.00002044
Cd      -0.00000000      -0.00000000       0.00000000       0.00000001      -0.00000057       0.00000180
I       -0.00000000       2.46820816       1.71402628      -0.00000101       0.00089781      -0.00795332
I        2.13753097       1.23410408      40.15398904       0.00000128      -0.00089664       0.00795719
I       -0.00000000       2.46820816       8.69198164      -0.00000110       0.00076180      -0.00840978
I        2.13753097       1.23410408      33.17603368       0.00000129      -0.00076089       0.00841353
I       -0.00000000       2.46820816      15.67065803      -0.00000092      -0.00075620      -0.01090549
I        2.13753097       1.23410408      26.19735729       0.00000135       0.00075655       0.01090370
I       -0.00000000       2.46820816      22.64767481      -0.00000112       0.00090755      -0.00540191
I        2.13753097       1.23410408      19.22034051       0.00000135      -0.00090666       0.00540475
I       -0.00000000       2.46820816      36.60453680      -0.00000103       0.00089623      -0.01074227
I        2.13753097       1.23410408       5.26347852       0.00000123      -0.00089551       0.01074402
I       -0.00000000      -0.00000000      12.24146322      -0.00000006       0.00091255       0.01114904
I       -0.00000000      -0.00000000      29.62655210      -0.00000002      -0.00091325      -0.01114783
32
Lattice="2.61471571 5.20736489 -0.0 -2.61471571 5.20736489 0.0 -0.33762776 -0.0 16.30101151" Properties=species:S:1:pos:R:3:forces:R:3 frame_id=4113 subset=mc3d_ext atomization_energy=-211.0665356972604 energy=-272365.63817962 stress="-0.00039304 0.0 0.00010221 0.0 0.00127191 0.0 0.00010221 0.0 -0.00154236" pbc="T T T"
Ca       0.95463387       0.11437211      13.25187096      -0.00708025       0.01542095       0.00758064
Ca       3.73816346       5.09299277       5.10136520      -0.00708029      -0.01542102       0.00758060
Ca       3.76835589       0.11437211      11.19964631       0.00708025       0.01542095      -0.00758061
Ca       1.32245406       5.09299277       3.04914055       0.00708028      -0.01542094      -0.00758064
Ca       0.92411796       4.09631490      15.89693714       0.00820516       0.09174638       0.02043745
Ca       3.70764755       1.11104997       7.74643138       0.00820520      -0.09174634       0.02043753
Ca       3.79887180       4.09631490       8.55458013      -0.00820522       0.09174639      -0.02043736
Ca       1.35296997       1.11104997       0.40407437      -0.00820521      -0.09174637      -0.02043750
Ca       1.17318145       1.95040373      10.27114729       0.02438084      -0.00888671       0.01539485
Ca       3.95671104       3.25696115       2.12064154       0.02438088       0.00888664       0.01539471
Ca       3.54980830       1.95040373      14.18036998      -0.02438083      -0.00888667      -0.01539480
Ca       1.10390648       3.25696115       6.02986422      -0.02438087       0.00888665      -0.01539484
Si       0.95992229       3.17251806      13.21476943       0.01292736       0.02540785      -0.02523457
Si       3.74345187       2.03484682       5.06426368       0.01292753      -0.02540789      -0.02523481
Si       3.76306747       3.17251806      11.23674784      -0.01292749       0.02540785       0.02523469
Si       1.31716565       2.03484682       3.08624208      -0.01292762      -0.02540789       0.02523478
H        1.21284554       4.11210809       8.65347451      -0.00809628       0.02167813      -0.02405229
H        3.99637512       1.09525679       0.50296875      -0.00809626      -0.02167814      -0.02405228
H        3.51014422       4.11210809      15.79804276       0.00809628       0.02167813       0.02405229
H        1.06424240       1.09525679       7.64753701       0.00809627      -0.02167814       0.02405228
N        1.06887659       2.15074275      14.62645453       0.00975130       0.01919317      -0.02780437
N        3.85240617       3.05662212       6.47594878       0.00975132      -0.01919305      -0.02780440
N        3.65411317       2.15074275       9.82506274      -0.00975129       0.01919317       0.02780440
N        1.20821135       3.05662212       1.67455698      -0.00975132      -0.01919305       0.02780439
N       -0.25322083       2.40863806      12.22575864       0.00000006       0.02383331      -0.00000004
N        2.53030876       2.79872682       4.07525288      -0.00000003      -0.02383327       0.00000001
N        2.36149488       3.08429503      12.22575864       0.00000006      -0.04250004      -0.00000011
N       -0.08440695       2.12306985       4.07525288       0.00000018       0.04250004      -0.00000009
N        0.74085739       4.86721811      13.62835440       0.01175092      -0.06996566      -0.04977744
N        3.52438697       0.34014677       5.47784864       0.01175093       0.06996560      -0.04977741
N        3.98213237       4.86721811      10.82316287      -0.01175093      -0.06996566       0.04977746
N        1.53623055       0.34014677       2.67265711      -0.01175094       0.06996565       0.04977751
104
Lattice="9.48452047 0.0 0.0 -4.74226023 8.21383567 0.0 0.0 0.0 14.67823365" Properties=species:S:1:pos:R:3:forces:R:3 frame_id=8867 subset=mc3d_ext atomization_energy=-772.1798534512054 energy=-1620832.78021592 stress="0.00111894 7.526e-05 0.0 7.526e-05 0.00104248 0.0 0.0 0.0 0.00112712" pbc="T T T"
Y       -1.46028544       7.15060015       5.54485884      -0.01218226       0.01947683      -0.02634332
Y        5.46245866       4.83994437      12.88397566       0.01095079       0.02173812      -0.02593932
Y        2.18048387       5.90317989       5.54485884       0.02437844       0.00132726      -0.02883246
Y       -0.72019843       3.37389131       5.54485884      -0.01095055      -0.02173824      -0.02593877
Y        6.20254568       1.06323552      12.88397566       0.01218150      -0.01947639      -0.02634390
Y        2.56177637       2.31065579      12.88397566      -0.02437884      -0.00132827      -0.02883288
Y        5.49420173       4.67897751       6.86930003       0.01330912       0.01297161       0.04559997
Y        2.05695402       5.79520616      14.20841685       0.01813608      -0.00643559       0.04269104
Y        6.04727276       1.11622865       6.86930003       0.00345985      -0.01878592       0.04452151
Y        2.68530622       2.41862952       6.86930003      -0.01813527       0.00643630       0.04269206
Y       -0.75194149       3.53485816      14.20841685      -0.01330913      -0.01297188       0.04559945
Y       -1.30501252       7.09760703      14.20841685      -0.00345953       0.01878553       0.04452070
Y        0.00000000       5.47589045       2.55064961       0.00173955       0.00182056       0.09459342
Y        4.74226024       2.73794523       9.88976643      -0.00173999      -0.00182063       0.09459251
Y        0.00000000       0.00000000      -0.03193803      -0.00000091      -0.00173802       0.06480147
Y        0.00000000       0.00000000       7.30717879       0.00000085       0.00173819       0.06480184
H        0.75609131       7.86047643       3.90808510       0.00776753       0.02013966      -0.00093881
H        7.18541793       3.27544394      11.24720193       0.02116131       0.00316065      -0.00122023
H        1.68706638       3.62880318       3.90808510       0.01340767      -0.01666808      -0.00106020
H       -2.44315769       4.93839174       3.90808510      -0.02116130      -0.00316063      -0.00122023
H        3.98616893       0.35335925      11.24720193      -0.00776752      -0.02013965      -0.00093882
H        3.05519385       4.58503250      11.24720193      -0.01340743       0.01666786      -0.00106010
H       -4.26201492       6.74706384       4.83534066      -0.01209757       0.02372183      -0.06076482
H        3.71212122       7.06454512      12.17445749       0.01492995       0.02207083      -0.06051338
H        3.23187591       8.53131695       4.83534066       0.02648307      -0.00153170      -0.06056598
H        1.03013902       1.14929056       4.83534066      -0.01492994      -0.02207081      -0.06051338
H        9.00427516       1.46677184      12.17445749       0.01209759      -0.02372184      -0.06076484
H        1.51038433      -0.31748127      12.17445749      -0.02648306       0.00153173      -0.06056598
H        5.80700318       5.86266044       0.85220214      -0.01939580      -0.00526960       0.03217863
H        3.23845423       6.11615362       8.19131897      -0.01412530       0.01450263       0.03226768
H        6.91597152       0.25349318       0.85220214       0.00535619       0.01949690       0.03229905
H        1.50380601       2.09768206       0.85220214       0.01412548      -0.01450268       0.03226806
H       -1.06474294       2.35117524       8.19131897       0.01939563       0.00526944       0.03217814
H       -2.17371128       7.96034250       8.19131897      -0.00535622      -0.01949670       0.03229866
H        3.92622681       3.81321693       4.55725442       0.02040524      -0.00213040      -0.02995290
H        0.52319590       6.72023198      11.89637124       0.00837323      -0.01879670      -0.02992123
H        6.08148956       2.90701506       4.55725442      -0.01218607      -0.01668912      -0.02983372
H        4.21906434       1.49360369       4.55725442      -0.00837321       0.01879679      -0.02992139
H        0.81603343       4.40061875      11.89637124      -0.02040524       0.00213041      -0.02995290
H       -1.33922933       5.30682062      11.89637124       0.01218615       0.01668915      -0.02983386
H        3.85095665       3.75698721       0.44737431       0.01577194       0.00549855       0.06247946
H        0.43686446       6.75730299       7.78649113       0.01283368      -0.01085054       0.06243324
H        6.07042828       3.00031578       0.44737431      -0.00305408      -0.01639337       0.06241216
H        4.30539578       1.45653269       0.44737431      -0.01283368       0.01085054       0.06243318
H        0.89130359       4.45684847       7.78649113      -0.01577192      -0.00549858       0.06247940
H       -1.32816804       5.21351989       7.78649113       0.00305412       0.01639341       0.06241226
C       -2.25792051       7.97272567       2.37061839       0.03694868      -0.00227908       0.03351559
C        5.77562271       5.94177936       9.70973521       0.01630262      -0.03286255       0.03346692
C        3.29128299       6.18288937       2.37061839      -0.02121268      -0.03048144       0.03534897
C       -1.03336247       2.27205631       2.37061839      -0.01630257       0.03286307       0.03346683
C        7.00018075       0.24111000       9.70973521      -0.03694870       0.00227929       0.03351581
C        1.45097725       2.03094631       9.70973521       0.02121250       0.03048128       0.03534914
Cl       0.00000000       5.47589045       9.84410364      -0.00019432       0.00008201       0.04843046
Cl       4.74226024       2.73794523       2.50498681       0.00019435      -0.00008200       0.04843049
O        3.64977393       4.07597543       5.44811111      -0.01890902       0.02525510       0.08235132
O        0.61252499       7.09102644      12.78722793       0.01265172       0.02904122       0.08158217
O        6.44727153       3.01505102       5.44811111       0.03128457       0.00315079       0.08101426
O        4.12973525       1.12280924       5.44811111      -0.01265171      -0.02904130       0.08158233
O        1.09248631       4.13786025      12.78722793       0.01890905      -0.02525509       0.08235131
O       -1.70501129       5.19878466      12.78722793      -0.03128467      -0.00315080       0.08101442
O       -2.42100000       8.09800878       3.61495787       0.04130920      -0.05262105       0.08858441
O        5.80258132       6.14565190      10.95407469      -0.02448193      -0.06233135       0.08778893
O        3.48132109       6.26147879       3.61495787      -0.06615949      -0.00948897       0.08627570
O       -1.06032108       2.06818378       3.61495787       0.02448192       0.06233129       0.08778903
O        7.16326024       0.11582690      10.95407469      -0.04130910       0.05262093       0.08858450
O        1.26093915       1.95235689      10.95407469       0.06615944       0.00948897       0.08627577
O       -1.26664805       7.25626196       1.89279924       0.03045784      -0.05157039      -0.08650546
O        5.65078317       4.72508037       9.23191607      -0.02955975      -0.05267376      -0.08603821
O        2.17517099       5.68265408       1.89279924      -0.06037108      -0.00047363      -0.08734135
O       -0.90852293       3.48875530       1.89279924       0.02955979       0.05267384      -0.08603807
O        6.00890829       0.95757371       9.23191607      -0.03045804       0.05157054      -0.08650564
O        2.56708925       2.53118159       9.23191607       0.06037137       0.00047381      -0.08734154
O       -3.78645091       6.69649663       5.67757824       0.04111918      -0.03452256       0.08206637
O        3.90611074       6.62741100      13.01669507      -0.00945963      -0.05309832       0.08201398
O        2.95030142       8.14475004       5.67757824      -0.05035673      -0.01667401       0.08051367
O        0.83614950       1.58642468       5.67757824       0.00945963       0.05309832       0.08201404
O        8.52871115       1.51733904      13.01669507      -0.04111919       0.03452257       0.08206635
O        1.79195882       0.06908564      13.01669507       0.05035671       0.01667401       0.08051363
O        4.14293435       6.56355823       1.50810723       0.09558709       0.03177347      -0.13136031
O        3.01341510       7.90772839       8.84722405       0.07474698      -0.06651376      -0.12988835
O        8.35500122       1.34417017       1.50810723      -0.02090994      -0.09866355      -0.13040599
O        1.72884514       0.30610729       1.50810723      -0.07474688       0.06651361      -0.12988825
O        0.59932589       1.65027745       8.84722405      -0.09558709      -0.03177344      -0.13136034
O       -3.61274098       6.86966551       8.84722405       0.02090992       0.09866312      -0.13040583
O       -3.32866914       6.12191400      -0.00882627       0.01832244      -0.00602362      -0.03061674
O        3.63739848       5.94366904       7.33029055       0.00408303      -0.01822012      -0.03106981
O        2.22380738       8.03559071      -0.00882627      -0.01480800      -0.01256338      -0.03111209
O        1.10486176       2.27016664      -0.00882627      -0.00408318       0.01822019      -0.03107029
O        8.07092938       2.09192167       7.33029055      -0.01832225       0.00602383      -0.03061616
O        2.51845286       0.17824497       7.33029055       0.01480803       0.01256318      -0.03111164
O       -1.56569943       5.19079132       4.20906534       0.07227161       0.04520924      -0.02566441
O        3.71250743       3.95133115      11.54818217       0.07497998      -0.03942623      -0.02622525
O        0.53594663       6.97437550       4.20906534       0.00324177      -0.08465246      -0.02582380
O        1.02975281       4.26250453       4.20906534      -0.07498021       0.03942647      -0.02622504
O        6.30795967       3.02304436      11.54818217      -0.07227165      -0.04520926      -0.02566449
O        4.20631361       1.23946018      11.54818217      -0.00324175       0.08465249      -0.02582387
O       -1.69680297       5.14660073       6.89244701      -0.04042178      -0.01093795      -0.08822211
O        3.60868549       4.04277484      14.23156384      -0.02962532       0.03013523      -0.08815694
O        0.56322822       7.11000979       6.89244701       0.01065881       0.04046939      -0.08920845
O        1.13357475       4.17106083       6.89244701       0.02962529      -0.03013511      -0.08815680
O        6.43906321       3.06723495      14.23156384       0.04042176       0.01093791      -0.08822211
O        4.17903202       1.10382589      14.23156384      -0.01065878      -0.04046940      -0.08920845
O        0.00000000       5.47589045       0.34769459      -0.00002989       0.00021802      -0.03570464
O        4.74226024       2.73794523       7.68681141       0.00002991      -0.00021804      -0.03570449
5
Lattice="-2.05141276 2.59304723 4.08736427 2.05141276 -2.59304723 4.08736427 2.05141276 2.59304723 -4.08736427" Properties=species:S:1:pos:R:3:forces:R:3 frame_id=16454 subset=mc3d_ext atomization_energy=-24.25793304166291 energy=-788341.147261975 stress="-0.00937332 4.1e-07 -1e-08 4.1e-07 -0.00661516 1.5e-07 -1e-08 1.5e-07 -0.00585936" pbc="T T T"
Tb      -0.00000000       2.59304723       1.65360919       0.00000216      -0.00000192      -0.00232061
Tb       2.05141276       0.00000000       2.43375508      -0.00000739       0.00001977       0.00233216
Ga       0.00000000       0.00000000       0.00000000       0.00000166      -0.00000591      -0.00000304
Ni       2.05141276       1.37898871      -0.00000000       0.00000235       0.00431617      -0.00000068
Ni      -0.00000000       1.21405852       4.08736427       0.00000122      -0.00432811      -0.00000782
29
Lattice="-4.80208954 4.80208954 4.80208954 4.80208954 -4.80208954 4.80208954 4.80208954 4.80208954 -4.80208954" Properties=species:S:1:pos:R:3:forces:R:3 frame_id=19884 subset=mc3d_ext atomization_energy=-355.2210011035204 energy=-11769616.6860619 stress="-0.02098159 0.0 0.0 0.0 -0.02098149 0.0 0.0 0.0 -0.02098153" pbc="T T T"
Nb       0.00000000       0.00000000       0.00000000       0.00000316      -0.00000120       0.00000503
Nb       1.76348936       1.76348936      -1.76348936      -0.04606045      -0.04607955       0.04607730
Nb       1.76348936      -1.76348936       1.76348936      -0.04605741       0.04607608      -0.04606709
Nb      -1.76348936       1.76348936       1.76348936       0.04606460      -0.04607588      -0.04606745
Nb       3.03860018       3.03860018       3.03860018       0.04606452       0.04607360       0.04607646
Re       3.92578907       3.92578907      -2.06495417      -0.01835182      -0.01833430       0.09165051
Re      -0.87630048       6.86704371       0.87630048      -0.01827192      -0.09151055       0.01841882
Re      -0.87630048       0.87630048       6.86704371      -0.01841474       0.01833194      -0.09159951
Re       3.92578907      -2.06495417       3.92578907      -0.01845602       0.09154380      -0.01843833
Re       6.86704371      -0.87630048       0.87630048      -0.09152197      -0.01836099       0.01845670
Re       6.86704371       0.87630048      -0.87630048      -0.09160806       0.01845560      -0.01843903
Re       0.87630048      -0.87630048       6.86704371       0.01840852      -0.01844944      -0.09161948
Re       0.87630048       6.86704371      -0.87630048       0.01844688      -0.09158327      -0.01843037
Re       0.87630048       0.87630048       2.73713538       0.01836290       0.01839539       0.09158146
Re       0.87630048       2.73713538       0.87630048       0.01835217       0.09159516       0.01840619
Re      -2.06495417       3.92578907       3.92578907       0.09158592      -0.01848818      -0.01845136
Re       2.73713538       0.87630048       0.87630048       0.09156438       0.01844301       0.01842145
Re       1.35788494       1.35788494       5.19115978      -0.03467952      -0.03477469       0.09786153
Re       1.35788494       4.41301930      -1.35788494      -0.03470931      -0.09785266       0.03480915
Re       1.35788494      -1.35788494       4.41301930      -0.03484089       0.03473150      -0.09794335
Re       1.35788494       5.19115978       1.35788494      -0.03449308       0.09795114      -0.03468332
Re       4.41301930       1.35788494      -1.35788494      -0.09784180      -0.03458491       0.03475544
Re       4.41301930      -1.35788494       1.35788494      -0.09804660       0.03459141      -0.03479538
Re      -1.35788494       1.35788494       4.41301930       0.03477188      -0.03477388      -0.09797846
Re      -1.35788494       4.41301930       1.35788494       0.03471559      -0.09804919      -0.03478394
Re       3.44420461       3.44420461       0.38907024       0.03467361       0.03482337       0.09808503
Re       3.44420461       0.38907024       3.44420461       0.03447554       0.09793849       0.03465034
Re       5.19115978       1.35788494       1.35788494       0.09780708      -0.03458926      -0.03458911
Re       0.38907024       3.44420461       3.44420461       0.09805683       0.03455746       0.03463078
44
Lattice="10.91826334 0.0 0.0 0.0 8.55010398 0.0 0.0 0.0 9.84381906" Properties=species:S:1:pos:R:3:forces:R:3 frame_id=23476 subset=mc3d_ext atomization_energy=-351.47484524018364 energy=-511264.97539496 stress="0.0066003 -0.0 0.0 -0.0 0.00150171 -0.0 0.0 -0.0 0.00252267" pbc="T T T"
Cu       2.72956584       0.00000000       0.28481944      -0.00000016       0.00000003       0.18596422
Cu       2.72956584       4.27505199       4.63709009      -0.00000018      -0.00000017      -0.18596433
Cu       8.18869751       0.00000000       9.55899961      -0.00000007       0.00000001      -0.18596394
Cu       8.18869751       4.27505199       5.20672897      -0.00000002      -0.00000013       0.18596391
C        2.73325386       6.41257799       2.46095476      -0.33934738      -0.00000023       0.00000023
C        8.19238553       6.41257799       7.38286429      -0.33934741      -0.00000009       0.00000005
C        8.18500948       2.13752600       7.38286429       0.33934743      -0.00000021       0.00000023
C        2.72587781       2.13752600       2.46095476       0.33934739      -0.00000007       0.00000004
C        0.72241660       6.87220576       1.92918590      -0.06547462       0.02761788       0.09886411
C        0.72241660       5.95295022       2.99272363      -0.06547457      -0.02761797      -0.09886404
C        6.18154827       6.87220576       7.91463316      -0.06547412       0.02761776      -0.09886432
C        6.18154827       5.95295022       6.85109542      -0.06547404      -0.02761771       0.09886452
C       10.19584674       2.59715377       6.85109542       0.06547408       0.02761745       0.09886469
C       10.19584674       1.67789822       7.91463316       0.06547406      -0.02761752      -0.09886451
C        4.73671507       2.59715377       2.99272363       0.06547460       0.02761771      -0.09886421
C        4.73671507       1.67789822       1.92918590       0.06547455      -0.02761764       0.09886431
C       10.53224893       7.42612788       1.27653000      -0.60369209       0.25988388      -0.39155376
C       10.53224893       5.39902810       3.64537953      -0.60369201      -0.25988387       0.39155364
C        5.07311726       7.42612788       8.56728906      -0.60369193       0.25988390       0.39155371
C        5.07311726       5.39902810       6.19843953      -0.60369276      -0.25988436      -0.39155431
C        0.38601441       3.15107589       6.19843953       0.60369246       0.25988416      -0.39155413
C        0.38601441       1.12397611       8.56728906       0.60369233      -0.25988418       0.39155395
C        5.84514608       3.15107589       3.64537953       0.60369172       0.25988367       0.39155347
C        5.84514608       1.12397611       1.27653000       0.60369251      -0.25988417      -0.39155400
Br       4.59369591       6.41257799       2.46095476       0.07735143       0.00000037       0.00000000
Br      10.05282758       6.41257799       7.38286429       0.07735095       0.00000029      -0.00000000
Br       6.32456743       2.13752600       7.38286429      -0.07735092      -0.00000005       0.00000014
Br       0.86543576       2.13752600       2.46095476      -0.07735155      -0.00000000      -0.00000012
N        2.02263249       7.16556305       1.60689907       0.02673502      -0.24189328       0.18711801
N        2.02263249       5.65959292       3.31501046       0.02673501       0.24189371      -0.18711843
N        7.48176416       7.16556305       8.23691999       0.02673502      -0.24189288      -0.18711775
N        7.48176416       5.65959292       6.52880860       0.02673510       0.24189291       0.18711757
N        8.89563085       2.89051106       6.52880860      -0.02673503      -0.24189272       0.18711747
N        8.89563085       1.38454093       8.23691999      -0.02673504       0.24189302      -0.18711787
N        3.43649918       2.89051106       3.31501046      -0.02673495      -0.24189352      -0.18711833
N        3.43649918       1.38454093       1.60689907      -0.02673504       0.24189342       0.18711813
N        9.60035730       7.86041608       0.72193693       1.00915733      -0.47951099       0.61814944
N        9.60035730       4.96473989       4.19997259       1.00915715       0.47951092      -0.61814928
N        4.14122563       7.86041608       9.12188212       1.00915811      -0.47951135      -0.61815001
N        4.14122563       4.96473989       5.64384646       1.00915910       0.47951183       0.61815069
N        1.31790604       3.58536409       5.64384646      -1.00915874      -0.47951167       0.61815049
N        1.31790604       0.68968790       9.12188212      -1.00915834       0.47951149      -0.61815016
N        6.77703771       3.58536409       4.19997259      -1.00915679      -0.47951075      -0.61814908
N        6.77703771       0.68968790       0.72193693      -1.00915756       0.47951113       0.61814958
96
Lattice="7.5911155 0.0 0.14887834 0.0 10.34201765 0.0 -5.93190474 0.0 15.82321923" Properties=species:S:1:pos:R:3:forces:R:3 frame_id=26005 subset=mc3d_ext atomization_energy=-696.0906559187279 energy=-117529.115438014 stress="-0.01345322 -0.0 -0.01520151 -0.0 -0.0196074 -0.0 -0.01520151 -0.0 -0.0147061" pbc="T T T"
H        5.22664478       6.36634046       6.22174660      -0.42534359      -0.35494350       0.24789732
H        2.26069241       9.14668602      14.13335622      -0.42534347       0.35494343       0.24789725
H       -0.60148164       1.19533163       1.83874135       0.42534320      -0.35494320      -0.24789714
H       -3.56743401       3.97567719       9.75035096       0.42534324       0.35494329      -0.24789710
H        5.25261259       4.43064866       4.23077857      -0.60859058       0.06057253       0.22737768
H        2.28666022       0.74036016      12.14238819      -0.60859053      -0.06057246       0.22737757
H       -0.62744946       9.60165749       3.82970938       0.60859073       0.06057249      -0.22737770
H       -3.59340183       5.91136899      11.74131899       0.60859074      -0.06057249      -0.22737768
H        0.84247031       9.16805402      15.14809784       0.43250701       0.29600672      -0.36037498
H        3.80842268       6.34497246       7.23648822       0.43250687      -0.29600659      -0.36037482
H       -2.14921191       3.99704519       8.73560935      -0.43250704       0.29600669       0.36037495
H        0.81674046       1.17396364       0.82399973      -0.43250706      -0.29600666       0.36037496
H        1.83887001       3.55474218       7.66417913      -0.08313315       0.40871721      -0.28439540
H       -1.12708236       1.61626665      15.57578875      -0.08313312      -0.40871765      -0.28439559
H        2.78629312       8.72575100       0.39630882       0.08313313       0.40871765       0.28439557
H       -0.17965925       6.78727548       8.30791843       0.08313314      -0.40871765       0.28439558
H        0.96785408       4.72093412       6.84508026       0.45656205      -0.08353565       0.10835766
H       -1.99809829       0.45007471      14.75668988       0.45656188       0.08353556       0.10835751
H        3.65730906       9.89194294       1.21540769      -0.45656218      -0.08353564      -0.10835765
H        0.69135669       5.62108354       9.12701731      -0.45656227       0.08353568      -0.10835775
C        4.22581939       9.88477397       5.54173311      -0.04402939       0.13647101       0.00373997
C        1.25986702       5.62825251      13.45334272      -0.04402947      -0.13647098       0.00374026
C        0.39934374       4.71376514       2.51875484       0.04402981       0.13647123      -0.00373995
C       -2.56660863       0.45724368      10.43036446       0.04402977      -0.13647099      -0.00374030
C        3.88247475       4.89416052       5.84921697      -0.07142496      -0.01894767      -0.00706307
C        0.91652238       0.27684830      13.76082658      -0.07142518       0.01894807      -0.00706317
C        0.74268839      10.06516935       2.21127098       0.07142484      -0.01894777       0.00706329
C       -2.22326398       5.44785713      10.12288060       0.07142493       0.01894767       0.00706294
C        3.05802985      10.24063861       6.32950267      -0.14156698       0.14272866       0.16975782
C        0.09207748       5.27238787      14.24111229      -0.14156680      -0.14272861       0.16975757
C        1.56713329       5.06962978       1.73098528       0.14156635       0.14272883      -0.16975742
C       -1.39881908       0.10137905       9.64259489       0.14156630      -0.14272895      -0.16975728